 Gaussian 09, Revision C.01,
 Gaussian 09:  EM64L-G09RevC.01 23-Sep-2011

 -------------------------------------
 # opt freq hf/3-21g geom=connectivity
 -------------------------------------

 99/9=1/99;
 -------------------
 Title Card Required
 -------------------
 Charge =  0 Multiplicity = 1

 SCF Done:  E(RHF) =  -340.685775801     A.U. after    9 cycles
 SCF Done:  E(RHF) =  -340.702790910     A.U. after   10 cycles
 SCF Done:  E(RHF) =  -340.704501273     A.U. after    9 cycles
 SCF Done:  E(RHF) =  -340.704519276     A.U. after    7 cycles
 Optimization completed.
    -- Stationary point found.

 1\1\GINC-48-EE-C-BB-F9-B7\FOpt\RHF\3-21G\H3P1\CBARNETT\27-Feb-2019\0\\
 # opt freq hf/3-21g geom=connectivity\\Title Card Required\\0,1\P,-1.1
 216100623,0.5623124885,0.\H,-0.3925108248,-0.6592356473,-0.0043743431\
 H,-0.392488845,1.1692851177,1.060071299\H,-0.392488754,1.1768617021,-1
 .0556969559\\Version=EM64L-G09RevC.01\State=1-A1\HF=-340.7045193\RMSD=
 7.829e-09\RMSF=3.792e-05\Dipole=0.488802,-0.0000059,0.\Quadrupole=-1.3
 633519,0.6816759,0.6816759,0.0000246,0.,0.\PG=C03V [C3(P1),3SGV(H1)]\\
 @

 Normal termination of Gaussian 09 at Wed Feb 27 13:07:39 2019.

 --------------------------------------------------------------
 #N Geom=AllCheck Guess=TCheck SCRF=Check GenChk RHF/3-21G Freq
 --------------------------------------------------------------

 Structure from the checkpoint file:  ph3.chk
 -------------------
 Title Card Required
 -------------------
 Charge =  0 Multiplicity = 1

                         Standard orientation:
 ---------------------------------------------------------------------
 Center     Atomic      Atomic             Coordinates (Angstroms)
 Number     Number       Type             X           Y           Z
 ---------------------------------------------------------------------
      1         15           0        0.000000    0.000000    0.121519
      2          1           0        0.000000    1.221547   -0.607595
      3          1           0       -1.057891   -0.610774   -0.607595
      4          1           0        1.057891   -0.610774   -0.607595
 ---------------------------------------------------------------------

 SCF Done:  E(RHF) =  -340.704519276     A.U. after    1 cycles

 The electronic state is 1-A1.
 Alpha  occ. eigenvalues --  -79.38629  -7.46103  -5.34525  -5.34525  -5.34249
 Alpha  occ. eigenvalues --   -0.87579  -0.52734  -0.52734  -0.38055
 Alpha virt. eigenvalues --    0.18103   0.18103   0.26458   0.60381   0.60381
 Alpha virt. eigenvalues --    0.63275   0.70958   1.20672   1.26127   1.26127

 Mulliken atomic charges:
              1
     1  P    0.089077
     2  H   -0.029692
     3  H   -0.029692
     4  H   -0.029692
 Sum of Mulliken atomic charges =   0.00000

 Dipole moment (field-independent basis, Debye):
    X=              0.0000    Y=              0.0000    Z=             -1.2424  Tot=              1.2424
 Quadrupole moment (field-independent basis, Debye-Ang):
   XX=            -15.3439   YY=            -15.3439   ZZ=            -18.0946
   XY=              0.0000   XZ=              0.0000   YZ=              0.0000

  Exact polarizability:  22.339   0.000  22.339   0.000   0.000  14.948
 Approx polarizability:  17.899   0.000  17.899   0.000   0.000  11.715

                     1                      2                      3
                    A1                      E                      E
 Frequencies --  1092.6444              1269.1192              1269.1192
 Red. masses --     1.0814                 1.0283                 1.0283
 Frc consts  --     0.7607                 0.9759                 0.9759
 IR Inten    --    34.6268                27.2660                27.2660
 Raman Activ --    63.9944                86.7402                86.7402

                     4                      5                      6
                     E                      E                     A1
 Frequencies --  2397.9586              2397.9586              2409.4744
 Red. masses --     1.0414                 1.0414                 1.0263
 Frc consts  --     3.5281                 3.5281                 3.5104
 IR Inten    --   111.4087               111.4087                35.1961
 Raman Activ --   154.9352               154.9352               246.6993

 - Thermochemistry -
 -------------------
 Temperature   298.150 Kelvin.  Pressure   1.00000 Atm.
 Atom     1 has atomic number 15 and mass  30.97376

 Molecular mass:    33.99724 amu.
 Principal axes and moments of inertia in atomic units:
                           1         2         3
     Eigenvalues --    13.28486  13.28486  16.11108
           X           -0.55470   0.83205   0.00000
           Y            0.83205   0.55470   0.00000
           Z            0.00000   0.00000   1.00000
 This molecule is an oblate symmetric top.
 Rotational symmetry number  3.
 Rotational temperatures (Kelvin)      6.51974     6.51974     5.37604
 Rotational constants (GHZ):         135.84947   135.84947   112.01864
 Zero-point vibrational energy      64815.3 (Joules/Mol)
                                   15.49123 (Kcal/Mol)
 Vibrational temperatures:   1572.07  1825.98  1825.98  3450.12  3450.12
          (Kelvin)           3466.69

 Zero-point correction=                           0.024687 (Hartree/Particle)
 Thermal correction to Energy=                    0.027571
 Thermal correction to Enthalpy=                  0.028515
 Thermal correction to Gibbs Free Energy=         0.004687
 Sum of electronic and zero-point Energies=           -340.679832
 Sum of electronic and thermal Energies=              -340.676949
 Sum of electronic and thermal Enthalpies=            -340.676004
 Sum of electronic and thermal Free Energies=         -340.699833

                     E (Thermal)             CV                S
                      KCal/Mol        Cal/Mol-Kelvin    Cal/Mol-Kelvin
 Total                   17.301              6.583             50.151
 Electronic               0.000              0.000              0.000
 Translational            0.889              2.981             36.502
 Rotational               0.889              2.981             13.522
 Vibrational             15.523              0.621              0.127

 Optimization completed.
    -- Stationary point found.

 1\1\GINC-48-EE-C-BB-F9-B7\Freq\RHF\3-21G\H3P1\CBARNETT\27-Feb-2019\0\\
 #N Geom=AllCheck Guess=TCheck SCRF=Check GenChk RHF/3-21G Freq\\Title
 Card Required\\0,1\P,-1.1216100623,0.5623124885,0.\H,-0.3925108248,-0.
 6592356473,-0.0043743431\H,-0.392488845,1.1692851177,1.060071299\H,-0.
 392488754,1.1768617021,-1.0556969559\\Version=EM64L-G09RevC.01\State=1
 -A1\HF=-340.7045193\RMSD=1.052e-09\RMSF=3.792e-05\ZeroPoint=0.0246868\
 Thermal=0.0275708\Dipole=0.4888021,-0.0000059,0.\DipoleDeriv=0.4223704
 ,-0.000001,0.,-0.000001,0.3373684,0.,0.,0.,0.3373684,-0.1407862,0.2754

 Normal termination of Gaussian 09 at Wed Feb 27 13:07:40 2019.
